; Include forcefield parameters
; The actual location of these files might be different on your computer!
#include "/opt/clones/mummi_resources/martini3/martini_v3.0.0.itp"
#include "/opt/clones/mummi_resources/martini3/martini_v3.0_ffbonded_alpha_v1.itp"
#include "/opt/clones/mummi_resources/martini3/martini_v3.0_phospholipids_PA_alpha_v1.itp"
#include "/opt/clones/mummi_resources/martini3/martini_v3.0_phospholipids_PC_alpha_v1.itp"
#include "/opt/clones/mummi_resources/martini3/martini_v3.0_phospholipids_PE_alpha_v1.itp"
#include "/opt/clones/mummi_resources/martini3/martini_v3.0_phospholipids_PG_alpha_v1.itp"
#include "/opt/clones/mummi_resources/martini3/martini_v3.0_phospholipids_PS_alpha_v1.itp"
#include "/opt/clones/mummi_resources/martini3/martini_v3.0_phospholipids_PI_alpha_v1.itp"
#include "/opt/clones/mummi_resources/martini3/martini_v3.0_phospholipids_SM_alpha_v1.itp"
#include "/opt/clones/mummi_resources/martini3/martini_v3.0_sterols_v1.0.itp"
#include "/opt/clones/mummi_resources/martini3/martini_v3.0.0_solvents_v1.itp"
#include "/opt/clones/mummi_resources/martini3/martini_v3.0.0_ions_v1.itp"
#include "/opt/clones/mummi_resources/martini3/kras_braf_rbdcrd_only_v1.2_fix_altm.itp"

[ system ]
; name
lipids-sim

[ molecules ]
; name  number
; X: 20.000 (26 lipids) Y: 20.000 (26 lipids)
; 676 lipids in upper leaflet, 675 lipids in lower leaflet
; Charge of protein: 6.000000
; Charge of membrane: -157.000000
; Total charge: -151.000000
RAS_RAF          1
POPX           159
PAPC            79
POPE            14
DLPE            39
SSM            157
CHOL           228
POPC            88
PAPC            48
POPE            34
DLPE           103
SSM             69
PAPS           101
SAP6            14
CHOL           153
W            38145
NA             574
CL             422
